LAMMPS (29 Aug 2024 - Update 4)
OMP_NUM_THREADS environment is not set. Defaulting to 1 thread. (src/comm.cpp:99)
  using 1 OpenMP thread(s) per MPI task
Loaded 1 plugins from C:\Users\akash\AppData\Local\LAMMPS 64-bit 29Aug2024\plugins
# 1. Initialization
units           metal
dimension       3
boundary        s s p
atom_style      atomic

# 2. Read Structure
read_data       Al_Cu_alloy.data
Reading data file ...
  orthogonal box = (0 0 0) to (60.69 60.69 121.38)
  1 by 1 by 1 MPI processor grid
  reading atoms ...
  27000 atoms
  read_data CPU = 0.099 seconds

# 3. Interatomic Potential (Ensure you have an Al-Cu EAM file in your directory)
pair_style      eam/alloy
#pair_coeff      * * AlCu_Cai_1996.eam.alloy Al Cu
pair_coeff      * * AlCu.eam.alloy Al Cu
Reading eam/alloy potential file AlCu.eam.alloy with DATE: 2008-10-01


# 4. Initial Relaxation
thermo          100
thermo_style    custom step lx ly lz press pxx pyy pzz ke pe temp
minimize        1.0e-12 1.0e-12 10000 100000
Neighbor list info ...
  update: every = 1 steps, delay = 0 steps, check = yes
  max neighbors/atom: 2000, page size: 100000
  master list distance cutoff = 8.6825
  ghost atom cutoff = 8.6825
  binsize = 4.34125, bins = 14 14 28
  1 neighbor lists, perpetual/occasional/extra = 1 0 0
  (1) pair eam/alloy, perpetual
      attributes: half, newton on
      pair build: half/bin/atomonly/newton
      stencil: half/bin/3d
      bin: standard
Per MPI rank memory allocation (min/avg/max) = 17.01 | 17.01 | 17.01 Mbytes
   Step           Lx             Ly             Lz           Press           Pxx            Pyy            Pzz           KinEng         PotEng          Temp     
         0   58.679138      58.679138      121.38        -19402.736     -18497.663     -18530.606     -21179.94       0             -89461.25       0            
       100   58.342509      58.338193      121.38        -1482.1844      28.758843      26.066747     -4501.3788      0             -89600.01       0            
       197   58.342509      58.338193      121.38        -1508.6599     -0.32155988     0.11060636    -4525.7688      0             -89600.011      0            
Loop time of 10.7996 on 1 procs for 197 steps with 27000 atoms

98.5% CPU use with 1 MPI tasks x 1 OpenMP threads

Minimization stats:
  Stopping criterion = energy tolerance
  Energy initial, next-to-last, final = 
     -89461.2496326428  -89600.0112950873  -89600.0112951626
  Force two-norm initial, final = 24.935701 0.00076399361
  Force max component initial, final = 0.81830824 0.00010457471
  Final line search alpha, max atom move = 1 0.00010457471
  Iterations, force evaluations = 197 376

MPI task timing breakdown:
Section |  min time  |  avg time  |  max time  |%varavg| %total
---------------------------------------------------------------
Pair    | 10.642     | 10.642     | 10.642     |   0.0 | 98.54
Neigh   | 0.025965   | 0.025965   | 0.025965   |   0.0 |  0.24
Comm    | 0.005711   | 0.005711   | 0.005711   |   0.0 |  0.05
Output  | 0.000326   | 0.000326   | 0.000326   |   0.0 |  0.00
Modify  | 0          | 0          | 0          |   0.0 |  0.00
Other   |            | 0.1255     |            |       |  1.16

Nlocal:          27000 ave       27000 max       27000 min
Histogram: 1 0 0 0 0 0 0 0 0 0
Nghost:           4050 ave        4050 max        4050 min
Histogram: 1 0 0 0 0 0 0 0 0 0
Neighs:    2.12605e+06 ave 2.12605e+06 max 2.12605e+06 min
Histogram: 1 0 0 0 0 0 0 0 0 0

Total # of neighbors = 2126052
Ave neighs/atom = 78.742667
Neighbor list builds = 1
Dangerous builds = 0

# Initialize velocities to 100 K
velocity        all create 100.0 12345 mom yes rot no

# Relax at 300K with NPT
reset_timestep  0
timestep        0.01
#fix             1 all npt temp 300.0 300.0 0.1 iso 0.0 1.0 1.0
# Relax at 300K with NPT only controlling the Z-axis
fix             1 all npt temp 100.0 100.0 0.1 z 0.0 0.0 1.0


run             100000
Per MPI rank memory allocation (min/avg/max) = 14.76 | 14.76 | 14.76 Mbytes
   Step           Lx             Ly             Lz           Press           Pxx            Pyy            Pzz           KinEng         PotEng          Temp     
         0   58.346802      58.343761      121.38        -606.26731      893.1822       905.74904     -3617.7332      348.98947     -89600.011      100          
       100   59.753231      59.66542       118.4985      -1896.4422     -2784.243      -2562.1899     -342.89372      357.558       -89245.995      102.45524    
       200   60.221004      60.11973       117.6903      -2423.2015     -3610.0835     -3552.2829     -107.23809      345.12277     -89240.079      98.892032    
       300   58.815659      58.955528      121.48555      2921.5556      4492.7268      4304.2561     -32.316228      351.62665     -89244.487      100.75566    
       400   59.264908      59.294647      119.77861      71.03711       148.61392      45.931154      18.566252      347.56819     -89259.96       99.592746    
       500   59.876108      60.002341      117.64663     -2050.9875     -3311.6234     -3205.0758      363.73668      350.1526      -89225.387      100.33329    
       600   59.308596      59.162356      120.41263      1225.2871      1699.6954      1843.1677      132.99817      346.65513     -89257.152      99.331115    
       700   58.986277      59.120534      120.6256       1145.3038      1873.6118      1785.982      -223.68232      348.57037     -89253.833      99.879911    
       800   59.960308      59.84977       118.09732     -1977.9308     -2846.1412     -3008.126      -79.525217      350.77265     -89229.33       100.51096    
       900   59.561609      59.686646      119.47752     -164.53606     -329.33527     -309.73041      145.45749      349.36798     -89255.771      100.10846    
      1000   59.001835      58.919296      121.03327      1897.401       2791.5262      3025.0299     -124.3533       351.9105      -89248.017      100.837      
      1100   59.617125      59.74018       118.6581      -1391.9222     -2042.8127     -2047.4151     -85.538897      346.70149     -89242.426      99.3444      
      1200   59.810186      59.871614      118.80544     -812.23276     -1272.8919     -1425.1291      261.32271      350.24452     -89246.39       100.35963    
      1300   59.122799      59.185811      121.05269      2039.4306      3062.8181      3096.6244     -41.150761      350.54208     -89242.365      100.44489    
      1400   59.572887      59.499351      119.183       -788.88174     -1265.109      -1029.9325     -71.603766      346.1729      -89250.884      99.192938    
      1500   59.870777      59.892513      118.63662     -1396.6179     -2157.1612     -2003.8901     -28.802502      347.78272     -89242.444      99.654218    
      1600   59.421899      59.202053      120.70905      1565.8674      2393.9419      2288.8807      14.779419      347.40174     -89244.373      99.54505     
      1700   59.484832      59.452606      119.67164     -179.52261     -143.72005     -296.22679     -98.620977      349.03768     -89246.454      100.01382    
      1800   59.869171      59.944412      118.72388     -1350.7784     -2079.4122     -1858.8249     -114.09796      351.69389     -89240.137      100.77493    
      1900   59.506026      59.468294      120.15963      847.82079      1136.3505      1250.3059      156.80596      351.04806     -89249.051      100.58987    
      2000   59.437385      59.406769      120.09173      622.80537      916.46658      860.98114      90.968389      348.4824      -89250.965      99.854705    
      2100   60.031166      59.983616      118.92122     -1011.7586     -1437.1414     -1619.1252      20.990865      349.16822     -89240.718      100.05122    
      2200   59.704055      59.714211      119.69147      1.6214386     -28.200255     -14.879523      47.944093      348.3137      -89246.991      99.806364    
      2300   59.535415      59.461604      120.42363      996.83175      1458.1828      1591.9352     -59.622758      348.08863     -89247.757      99.741874    
      2400   59.911582      59.874369      119.04913     -999.42571     -1504.9242     -1399.512      -93.840922      346.17851     -89245.812      99.194543    
      2500   59.764676      59.851836      119.39486     -363.44698     -497.49226     -648.18981      55.341118      349.2173      -89246.992      100.06528    
      2600   59.517984      59.573123      120.57246      1235.6863      1995.1367      1777.2445     -65.322249      352.32359     -89245.388      100.95536    
      2700   60.033756      59.841117      119.21444     -711.99294     -1193.4224     -962.19791      19.641449      348.81953     -89243.937      99.951305    
      2800   60.161097      60.085832      119.23873     -517.15417     -933.55698     -667.33135      49.425819      349.17718     -89244.448      100.05379    
      2900   59.666963      59.646439      120.39549      1195.9449      1771.4503      1645.7652      170.61922      348.34272     -89247.948      99.814681    
      3000   60.098332      59.820828      119.5197      -231.80146     -321.76675     -463.89423      90.25659       351.77194     -89246.313      100.79729    
      3100   60.169208      60.019671      119.21157     -614.79243     -999.80268     -894.71431      50.139683      347.1332      -89244.6        99.468104    
      3200   59.800861      59.961564      120.0909       798.98534      963.50197      1149.0428      284.41121      347.09655     -89245.789      99.457601    
      3300   60.036231      59.901725      119.8564       211.22711      291.84786      303.80154      38.031928      350.19579     -89250.018      100.34566    
      3400   60.281021      60.164872      119.11899     -672.92974     -978.07938     -1086.2998      45.589928      347.48294     -89243.514      99.568317    
      3500   59.934934      59.950556      119.87504     -23.376636      101.02681      27.481752     -198.63847      352.21887     -89246.229      100.92536    
      3600   59.866458      60.016734      120.13455      453.37711      729.79022      806.73999     -176.39887      347.97148     -89246.476      99.708304    
      3700   60.404058      60.095969      119.1532      -780.60009     -1128.6629     -1116.1415     -96.995878      348.57557     -89243.911      99.881401    
      3800   60.125513      60.085319      119.56924      113.52064      70.970054     -9.105126       278.69699      347.65487     -89247.759      99.617583    
      3900   60.046668      59.915041      120.26515      623.53711      1111.9145      927.75392     -169.0571       348.87458     -89245.392      99.96708     
      4000   60.350408      60.292653      119.27042     -751.76978     -1032.9871     -1103.8851     -118.43713      348.9153      -89243.313      99.978748    
      4100   60.447469      60.377218      119.47219     -82.540627     -314.2157      -153.99382      220.58764      348.57431     -89246.075      99.881039    
      4200   59.971076      60.033772      120.19214      522.438        857.38901      845.59417     -135.66917      347.72953     -89247.79       99.638977    
      4300   60.207553      60.135872      119.47795     -306.73874     -413.19309     -519.15735      12.134214      347.67689     -89245.459      99.623891    
      4400   60.492964      60.448838      119.36778     -361.76017     -500.71132     -622.61889      38.049707      349.08742     -89247.151      100.02807    
      4500   60.492685      60.041053      120.08787      345.21245      552.86907      647.71147     -164.94317      348.79468     -89246.925      99.944186    
      4600   60.265639      60.12963       119.78066     -70.33754      -61.679087      5.4249658     -154.7585       347.88744     -89246.877      99.684224    
      4700   60.470953      60.322689      119.24748     -633.25268     -934.865       -931.46495     -33.428096      350.4211      -89242.371      100.41022    
      4800   60.425655      60.257498      119.92709      247.92957      479.08154      324.02111     -59.313935      348.65192     -89248.022      99.903278    
      4900   60.223242      60.321728      119.9409       534.23879      706.57375      720.66967      175.47293      347.38574     -89247.447      99.540467    
      5000   60.562471      60.457173      119.18983     -442.94126     -854.141       -686.55997      211.8772       349.347       -89241.836      100.10245    
      5100   60.67645       60.640632      119.72798      179.28752      204.03502      180.62051      153.20701      348.86879     -89247.018      99.965421    
      5200   60.366741      60.436108      120.06916      420.45502      717.68128      628.94049     -85.25669       350.42324     -89249.632      100.41084    
      5300   60.544108      60.578556      119.34472     -479.09121     -727.69455     -699.26669     -10.31237       347.94778     -89243.317      99.701514    
      5400   60.921912      60.835154      119.6145      -219.30158     -353.07127     -193.26647     -111.567        351.15424     -89244.883      100.6203     
      5500   60.416604      60.328765      120.06226      318.99794      560.26505      557.28386     -160.5551       349.24957     -89249.695      100.07453    
      5600   60.625935      60.792619      119.51392     -45.46778      -151.17919     -210.15322      224.92907      350.44783     -89244.451      100.41788    
      5700   60.804091      60.660703      119.42945     -194.78179     -388.63478     -366.6078       170.8972       347.78512     -89243.979      99.654906    
      5800   60.781363      60.462471      120.00888      482.41915      597.047        786.51729      63.693178      346.75398     -89248.62       99.35944     
      5900   60.781389      60.844353      119.75345     -295.50397     -262.5003      -256.46737     -367.54424      351.41345     -89248.164      100.69457    
      6000   60.79718       60.861306      119.30592     -526.9724      -672.51292     -894.75486     -13.649426      346.95488     -89246.495      99.417008    
      6100   60.684438      60.539122      119.92511      478.17663      667.40046      574.6422       192.48722      350.11028     -89245.466      100.32116    
      6200   60.767004      60.623036      119.85825      373.75326      430.39026      476.52956      214.33998      347.65771     -89246.257      99.618398    
      6300   60.993305      60.970016      119.28712     -455.2066      -744.25806     -697.99467      76.632931      348.35634     -89242.303      99.818584    
      6400   61.097738      60.859026      119.77821      204.56862      264.82         248.37766      100.50819      350.06609     -89248.526      100.3085     
      6500   61.097123      60.744851      119.97713      50.793746      283.35602      164.60757     -295.58236      346.65463     -89244.3        99.330973    
      6600   60.93253       60.955168      119.42707     -661.96471     -845.82411     -850.11191     -289.95813      346.35769     -89246.678      99.245886    
      6700   61.157488      60.93795       119.64462      63.817273     -29.693626      90.060952      131.08449      350.94512     -89245.263      100.56038    
      6800   60.889858      60.807983      119.95472      368.85015      560.26314      500.75064      45.536673      346.6909      -89246.801      99.341365    
      6900   61.164077      61.049962      119.52784     -274.33361     -332.27943     -450.0434      -40.678005      350.5316      -89243.299      100.44188    
      7000   61.361931      60.98121       119.5285      -548.32009     -634.73357     -688.22103     -322.00567      347.20782     -89246.476      99.489486    
      7100   61.29522       60.982218      119.97458      456.18971      618.77928      643.7526       106.03726      351.7774      -89245.944      100.79886    
      7200   61.303843      60.945901      119.6659      -106.20303     -190.03589     -93.156936     -35.416267      348.21036     -89244.203      99.776754    
      7300   61.338542      61.24102       119.35975     -152.01019     -329.82925     -434.63637      308.43504      349.41494     -89246.971      100.12192    
      7400   61.304569      61.210741      119.94526      438.25866      634.42513      633.50842      46.842426      347.2441      -89248.418      99.49988     
      7500   61.228984      61.249215      119.7178       66.446617      69.648533      66.60696       63.084359      352.13575     -89249.26       100.90154    
      7600   61.506782      61.415582      119.39197     -422.45077     -659.17489     -583.52375     -24.653664      351.28739     -89245.474      100.65845    
      7700   61.381126      61.326091      119.84252      319.7524       408.48051      431.13181      119.64489      347.44705     -89247.835      99.558033    
      7800   61.188732      61.281633      119.80586      320.68323      447.36622      320.57113      194.11234      349.24541     -89246.227      100.07334    
      7900   61.392499      61.297252      119.4613      -296.66129     -453.19845     -441.70231      4.916897       346.46769     -89245.763      99.277406    
      8000   61.392499      61.297252      119.73363      34.908114      32.21396       83.464861     -10.954478      349.79199     -89245.057      100.22996    
      8100   61.352617      61.341759      119.8963       228.81488      365.36623      323.89116     -2.8127465      348.3028      -89248.786      99.803242    
      8200   61.403328      61.359977      119.49474     -124.6797      -226.68051     -309.26602      161.90743      349.81969     -89243.59       100.23789    
      8300   61.571296      61.361419      119.64499     -427.80585     -474.36608     -489.48938     -319.56208      348.71754     -89248.178      99.922081    
      8400   61.586823      61.465979      119.95275      463.66879      585.97992      678.68821      126.33823      349.70394     -89244.254      100.20473    
      8500   61.794559      61.683433      119.556       -128.95904     -167.85753     -270.55407      51.534467      347.22493     -89246.08       99.494387    
      8600   61.712755      61.559699      119.50389     -151.34999     -292.3919      -290.87252      129.21443      348.582       -89245.145      99.883244    
      8700   61.689737      61.580962      119.98588      304.87605      530.40954      457.45493     -73.236333      347.57056     -89249.532      99.593424    
      8800   61.527108      61.605052      119.67229     -151.99073     -195.38336     -171.92203     -88.666792      349.90285     -89246.873      100.26172    
      8900   62.010957      61.830458      119.50138     -511.10748     -662.49538     -646.5383      -224.28875      347.67164     -89241.661      99.622389    
      9000   61.821829      61.532124      119.84463      585.14983      642.08992      680.94588      432.41368      349.68457     -89247.076      100.19918    
      9100   61.597155      61.541329      119.82187     -64.766703      41.760021     -78.727715     -157.33242      351.47488     -89245.088      100.71218    
      9200   61.958362      61.841995      119.47615     -486.04339     -639.49228     -645.62724     -173.01064      348.44561     -89242.495      99.844162    
      9300   61.794818      61.522521      119.71999      306.51455      263.82717      391.95088      263.76559      348.77014     -89247.546      99.937154    
      9400   61.765141      61.648004      119.90253      245.05438      380.56577      363.16668     -8.5693031      349.68191     -89243.617      100.19841    
      9500   61.798568      62.038017      119.49394     -519.57359     -539.03997     -769.03102     -250.64978      346.9059      -89246.254      99.402971    
      9600   61.798568      62.038017      119.62745      135.70044      105.18734      88.823022      213.09095      349.17384     -89245.133      100.05283    
      9700   61.752061      61.812529      119.92945      455.34714      538.15665      665.64627      162.23851      348.2984      -89246.992      99.80198     
      9800   61.820766      62.024343      119.51397     -302.71452     -429.53662     -421.02095     -57.585999      345.95285     -89243.327      99.129882    
      9900   62.168338      62.006514      119.59528     -304.26137     -324.13324     -394.83695     -193.81391      351.04486     -89244.404      100.58896    
     10000   62.294064      62.015212      119.92819      237.88854      406.05641      328.15239     -20.543191      348.94534     -89247.438      99.987355    
     10100   61.851856      61.828886      119.64705     -288.83817     -312.89976     -339.48399     -214.13075      346.54304     -89244.684      99.298996    
     10200   62.312762      62.322081      119.55064     -443.92444     -577.99245     -510.58516     -243.1957       347.47904     -89246.288      99.567201    
     10300   62.197826      62.043425      119.84761      454.53167      505.25107      596.45271      261.89123      349.68161     -89243.245      100.19833    
     10400   62.000748      61.949176      119.76878     -236.72135     -109.15605     -296.58631     -304.42169      345.25591     -89243.41       98.93018     
     10500   62.136129      62.169277      119.47634     -286.54569     -363.11911     -481.18639     -15.331588      350.10203     -89244.534      100.31879    
     10600   62.326347      62.041067      119.80667      9.6340224     -99.228979      228.78427     -100.65322      349.3885      -89248.874      100.11434    
     10700   62.081921      62.034762      119.88202     -96.661688     -14.327687      40.36784      -316.02522      346.90542     -89245.236      99.402833    
     10800   62.360254      62.352925      119.42651     -50.865541     -151.88468     -271.73809      271.02615      348.68147     -89240.906      99.911746    
     10900   62.265367      62.455163      119.69522     -72.231401     -44.022992     -159.37151     -13.299698      350.84225     -89249.229      100.5309     
     11000   62.25302       62.3565        119.91298      189.28142      294.38164      350.28617     -76.823568      348.53873     -89248.522      99.870845    
     11100   62.364453      62.226422      119.52592     -246.5874      -401.24402     -323.15238     -15.3658        349.45903     -89245.903      100.13455    
     11200   62.40554       62.433976      119.63384     -138.46863     -158.26575     -179.43373     -77.706412      348.37283     -89246.189      99.823309    
     11300   62.305095      62.220342      119.93398      116.81643      292.98115      228.8351      -171.36696      348.81206     -89248.383      99.949165    
     11400   62.631554      62.327194      119.63679     -288.75908     -301.50001     -372.80646     -191.97076      349.88907     -89245.48       100.25778    
     11500   62.665834      62.627835      119.53622     -231.98651     -356.33596     -311.45633     -28.167246      348.89557     -89247.672      99.973096    
     11600   62.4494        62.266739      119.89238      75.353543      85.913024      294.54782     -154.40021      347.80569     -89247.97       99.660799    
     11700   62.466444      62.146742      119.74173     -131.38871     -93.238635     -133.42163     -167.50586      349.19371     -89245.378      100.05853    
     11800   62.48059       62.614504      119.44757      10.974037     -46.499196     -219.39907      298.82038      348.16335     -89244.634      99.763284    
     11900   62.577232      62.46746       119.77535      281.99334      316.97203      339.78697      189.22101      351.34774     -89242.5        100.67574    
     12000   62.653073      62.34088       119.79975      30.132302     -48.381589      237.58431     -98.805814      347.61106     -89246.832      99.60503     
     12100   62.66003       62.5879        119.49183     -329.29239     -478.35163     -484.17303     -25.352505      349.88858     -89245.948      100.25763    
     12200   62.66003       62.5879        119.72968      188.86115      341.53319      91.482427      133.56784      350.33819     -89245.615      100.38646    
     12300   62.691155      62.70511       119.87328      138.34743      174.52079      256.62597     -16.104471      348.29042     -89249.167      99.799694    
     12400   62.897219      63.161924      119.53946     -29.901026     -260.9862      -43.412604      214.69573      346.28032     -89242.821      99.223717    
     12500   62.770599      62.804458      119.65922     -125.05958     -107.9166      -201.37761     -65.884525      351.03169     -89243.932      100.58518    
     12600   63.019604      62.659682      119.8572       93.364607      256.91906      128.58541     -105.41065      346.62553     -89246.453      99.322635    
     12700   62.931357      62.871701      119.69116     -363.86177     -420.66441     -339.32936     -331.59154      351.00261     -89242.372      100.57685    
     12800   62.931357      62.871701      119.59335     -18.711747     -106.29886     -98.913827      149.07745      346.3246      -89244.558      99.236405    
     12900   62.837233      62.840673      119.82268      274.13518      341.59949      367.9918       112.81426      351.38208     -89244.442      100.68558    
     13000   63.105237      62.85549       119.67943     -162.97495     -183.17861     -162.77042     -142.9758       344.87316     -89242.679      98.820507    
     13100   63.051446      62.852617      119.52989     -96.433006     -165.88451     -231.69512      108.28061      349.89601     -89241.468      100.25976    
     13200   62.811029      62.91235       119.79913      412.31769      495.10046      458.3192       283.5334       348.43907     -89248.081      99.842289    
     13300   63.094314      62.811469      119.7647      -66.804881     -49.907663     -21.868799     -128.63818      351.08903     -89243.804      100.60161    
     13400   63.524417      63.040745      119.50804      105.49729     -7.5643724      20.052419      304.00381      350.55345     -89246.264      100.44815    
     13500   63.530923      62.948046      119.70404      297.59809      370.20595      268.68336      253.90497      348.31759     -89246.792      99.807479    
     13600   62.841405      62.996728      119.79679     -63.882607      2.0514412     -54.237948     -139.46131      349.98556     -89246.093      100.28542    
     13700   63.244789      63.064685      119.55392     -95.774533     -258.33982     -98.517582      69.533799      344.49813     -89245.424      98.713046    
     13800   63.237751      62.81573       119.7108      -95.893936     -172.73229     -1.549418      -113.4001       349.25523     -89246.082      100.07615    
     13900   63.114009      62.965328      119.83073      83.032091      242.7266       97.158014     -90.788339      347.49166     -89246.896      99.570817    
     14000   63.053182      63.27082       119.59627     -108.7902      -80.784776     -275.55251      29.966681      344.38763     -89245.132      98.681381    
     14100   63.256657      63.202672      119.69378     -250.89828     -294.55732     -256.06091     -202.0766       350.66345     -89245.992      100.47967    
     14200   63.258137      63.108347      119.77438      240.77528      228.47943      353.98403      139.86237      347.67623     -89247.932      99.623702    
     14300   63.249093      63.358521      119.68042     -198.33495     -243.00822     -209.71262     -142.28401      350.84645     -89246.919      100.5321     
     14400   63.421266      63.258322      119.61527     -60.526131     -33.418285     -211.51213      63.352017      347.97876     -89247.416      99.710391    
     14500   63.44573       63.186946      119.78584      154.94312      243.36571      151.81855      69.645101      348.43843     -89244.938      99.842105    
     14600   63.507113      63.501452      119.72361     -88.313235     -110.2411      -40.003547     -114.69505      347.81125     -89248.317      99.662391    
     14700   63.468594      63.218866      119.61499     -90.012151     -194.27052     -67.488992     -8.2769409      348.29703     -89243.722      99.801588    
     14800   63.492347      63.357909      119.76726      37.323632      140.33883      23.893116     -52.261053      350.86707     -89246.118      100.53801    
     14900   63.488917      63.299339      119.72267      120.95338      240.91438      40.082034      81.863717      347.06557     -89246.668      99.448723    
     15000   63.722911      63.538069      119.6159      -230.94513     -342.55837     -239.66193     -110.61508      349.72549     -89244.948      100.2109     
     15100   63.678114      63.668927      119.75732     -48.251649     -102.93251      88.048374     -129.87081      350.17114     -89248.147      100.3386     
     15200   63.588218      63.392624      119.81464     -82.861471     -39.793044     -21.846251     -186.94512      347.25206     -89243.811      99.50216     
     15300   63.542733      63.428839      119.69509     -563.84627     -478.58764     -681.45898     -531.4922       347.60622     -89246.433      99.603642    
     15400   63.703922      63.55628       119.68416      48.304062      51.176837      55.586301      38.14905       350.21111     -89244.57       100.35005    
     15500   63.877822      63.469557      119.75059      271.70059      220.11995      395.42269      199.55914      346.14668     -89246.78       99.185425    
     15600   63.67949       64.055586      119.65155     -182.15719     -267.50089     -161.58212     -117.38856      349.00003     -89244.235      100.00303    
     15700   63.651122      63.62449       119.62607      57.150758      134.55081     -83.239106      120.14057      348.78627     -89246.478      99.941777    
     15800   63.651122      63.62449       119.69867      227.53226      254.61104      211.60689      216.37885      348.27725     -89248.132      99.79592     
     15900   63.651122      63.62449       119.69356     -140.25174     -244.51371     -64.836679     -111.40484      350.15325     -89245.418      100.33347    
     16000   63.651122      63.62449       119.66145     -190.52227     -294.29767     -150.21905     -127.05009      349.58205     -89248.669      100.1698     
     16100   63.821765      63.895663      119.73095      241.89873      276.55959      216.44842      232.6882       351.03464     -89245.725      100.58603    
     16200   63.821765      63.895663      119.6995      -70.682517     -65.551138     -102.40182     -44.09459       348.48562     -89246.763      99.855626    
     16300   64.035517      63.969128      119.59551     -47.220157     -93.027613     -126.95258      78.31972       350.33098     -89247.107      100.3844     
     16400   63.844632      63.944655      119.72603      71.225926      21.4729        151.98323      40.221646      347.77648     -89241.587      99.65243     
     16500   64.059856      63.64922       119.73011     -49.494198     -57.496294     -27.04478      -63.941521      347.33941     -89243.383      99.527192    
     16600   64.044834      64.008294      119.63216     -60.155669     -13.926617     -178.88926      12.348874      348.49532     -89246.356      99.858406    
     16700   64.166636      64.174623      119.72318      76.58223       85.580978      70.52399       73.641724      348.71778     -89240.993      99.92215     
     16800   64.199761      63.942109      119.70186      103.84202     -28.058092      193.76072      145.82342      348.49025     -89245.805      99.856954    
     16900   64.207869      63.900026      119.61519      249.7409       183.98634      199.44333      365.79304      348.9791      -89245.639      99.997029    
     17000   64.183139      64.355489      119.69986     -116.61121     -121.85685     -129.0304      -98.946368      347.76122     -89245.333      99.648055    
     17100   64.337642      64.071567      119.73489      14.550199      33.561306      21.971759     -11.882468      347.68903     -89249.785      99.627371    
     17200   64.337642      64.071567      119.69559     -29.600953     -1.8748878     -42.285489     -44.642483      346.14487     -89243.821      99.184906    
     17300   64.165118      64.088025      119.62673      197.48985      106.66352      196.495        289.31103      350.87071     -89244.01       100.53905    
     17400   64.270133      64.209787      119.79868     -32.100074     -6.488689       22.938369     -112.7499       348.11498     -89244.843      99.749425    
     17500   64.453591      64.033831      119.67361      90.869357      112.21578      28.586982      131.80531      345.97286     -89247.598      99.135618    
     17600   64.102149      64.197132      119.63336     -25.834182     -51.326443     -100.60148      74.425376      350.36311     -89246.331      100.39361    
     17700   64.348139      64.275215      119.72696      232.53569      212.31708      308.77767      176.51232      347.09361     -89245.469      99.456759    
     17800   64.430345      64.435623      119.69142      97.408524      116.82344      56.621728      118.7804       348.50234     -89243.975      99.860418    
     17900   64.430345      64.435623      119.70119     -351.07527     -365.79874     -376.569       -310.85807      348.70594     -89246.005      99.918759    
     18000   64.430345      64.435623      119.71983      32.687744      6.2640291      77.374203      14.424999      347.55309     -89247.43       99.58842     
     18100   64.430345      64.435623      119.7027       108.9997       138.10437      66.858594      122.03614      350.68203     -89245.159      100.48499    
     18200   64.430345      64.435623      119.6985      -317.40153     -356.54133     -322.81411     -272.84916      346.7668      -89247.405      99.363114    
     18300   64.855099      64.347344      119.70968     -12.273928     -80.869434      23.60425       20.443402      349.02417     -89243.428      100.00995    
     18400   64.396408      64.41866       119.74152      46.76231       63.766207      20.810627      55.710097      347.60116     -89245.916      99.602191    
     18500   64.396408      64.41866       119.63381     -99.058854     -91.484962     -170.27282     -35.418776      349.93893     -89244.079      100.27206    
     18600   64.872337      64.688466      119.6683       55.368429     -35.806712      67.421519      134.49048      348.50392     -89246.914      99.860872    
     18700   64.872337      64.688466      119.78366     -150.87561     -121.65973     -68.83647      -262.13063      350.39539     -89247.392      100.40286    
     18800   64.604944      64.799037      119.65761     -244.76767     -285.23383     -275.69005     -173.37914      346.94324     -89247.746      99.41367     
     18900   64.604944      64.799037      119.6491      -89.097351     -91.657067     -152.66144     -22.973545      350.47671     -89245.403      100.42616    
     19000   64.604944      64.799037      119.75854     -29.177345      25.112033     -10.132964     -102.5111       347.32393     -89248.978      99.522754    
     19100   64.521949      64.549538      119.67728      42.370404     -5.6701388      58.005513      74.775838      349.75598     -89244.607      100.21964    
     19200   64.59604       64.740659      119.60196      206.49232      107.19641      174.78752      337.49304      348.93439     -89245.312      99.984218    
     19300   64.56186       64.825828      119.77531     -139.68823     -21.121419     -170.36178     -227.58149      348.28214     -89245.51       99.797321    
     19400   64.753031      64.679458      119.71415     -92.167057     -105.72524     -84.828511     -85.94742       347.24805     -89243.379      99.501012    
     19500   65.058394      64.774451      119.61651      57.59616      -57.370583      67.542916      162.61615      349.47282     -89246.732      100.1385     
     19600   64.869801      64.638832      119.72022      21.875481      42.47484       27.285292     -4.1336891      348.50441     -89241.969      99.861011    
     19700   65.05708       64.79963       119.72995      17.106025      78.728308      4.1382612     -31.548495      349.736       -89245.45       100.21391    
     19800   64.952033      64.743464      119.62101      40.31241      -46.311372      16.449079      150.79952      347.93227     -89246.295      99.697069    
     19900   64.948317      65.067604      119.6917       103.68678      120.30911      109.76776      80.983481      347.21058     -89245.172      99.490275    
     20000   64.911375      64.893929      119.80173     -402.49379     -304.37258     -452.2409      -450.86788      348.58954     -89247.784      99.885406    
     20100   65.02868       64.956438      119.66743     -53.48057      -67.310807     -101.15047      8.0195633      348.07428     -89246.912      99.737763    
     20200   65.02868       64.956438      119.71059     -86.113281     -92.911775     -74.342635     -91.085432      348.77717     -89245.477      99.939168    
     20300   65.02868       64.956438      119.71876      16.678407      61.711086      8.4289274     -20.104792      343.73509     -89245.34       98.494403    
     20400   65.02868       64.956438      119.66541     -77.9149       -139.55392     -70.194903     -23.995872      350.42553     -89245.434      100.41149    
     20500   65.127814      65.212523      119.65436      53.796382      34.652614      1.4914865      125.24505      349.45161     -89244.493      100.13242    
     20600   65.316371      65.25539       119.74551      0.72468837     81.168408     -55.398409     -23.595933      347.34989     -89242.735      99.530195    
     20700   65.101999      64.966211      119.741       -255.25163     -270.74334     -217.91086     -277.10068      351.86923     -89244.264      100.82517    
     20800   65.101999      64.966211      119.69031     -316.15462     -340.89048     -296.62666     -310.94671      348.57246     -89246.841      99.88051     
     20900   65.610276      65.110632      119.68819      283.66759      261.5304       289.12297      300.3494       350.34151     -89246.703      100.38742    
     21000   65.337518      65.239677      119.75083     -63.360886      70.123575     -140.52027     -119.68596      349.0383      -89242.707      100.01399    
     21100   65.28858       65.160901      119.60365      97.622941      73.86045       7.4949277      211.51345      348.50533     -89246.171      99.861275    
     21200   65.337312      65.147366      119.72092      43.235858     -46.139225      153.97943      21.867365      348.2896      -89247.537      99.799459    
     21300   65.326045      65.154685      119.71456     -86.401611     -60.688723     -94.711718     -103.80439      347.10111     -89244.488      99.458908    
     21400   65.380506      65.293586      119.70129     -282.88895     -203.67801     -373.21415     -271.7747       351.62366     -89243.954      100.75481    
     21500   65.533852      65.319186      119.66885      121.49913      69.428398      143.81775      151.25124      347.76316     -89243.503      99.648613    
     21600   65.533852      65.319186      119.73401     -74.153428     -91.013883     -25.938721     -105.50768      347.714       -89249.421      99.634526    
     21700   65.565285      65.352001      119.63309      48.639565      60.330909     -49.671895      135.25968      350.9441      -89245.873      100.56008    
     21800   65.654921      65.647048      119.67008     -89.645561     -155.95428     -72.910066     -40.072334      347.89449     -89248.798      99.686243    
     21900   65.614203      65.320542      119.77736      134.93864      223.45915      155.78682      25.569952      350.53568     -89246.294      100.44306    
     22000   66.039462      65.386891      119.64344      74.747403      60.550624      55.030498      108.66109      350.03333     -89242.055      100.29911    
     22100   65.723601      65.575505      119.70823     -401.62344     -450.9793      -386.72371     -367.1673       349.05163     -89243.3        100.01781    
     22200   65.723601      65.575505      119.76387      25.458841      23.03153       104.55071     -51.205714      351.41745     -89250.716      100.69572    
     22300   65.581698      65.53407       119.67014      39.28944       36.275708      19.041391      62.551223      350.23118     -89244.023      100.3558     
     22400   65.579737      65.610412      119.62674     -132.13404     -166.79424     -188.28984     -41.318029      351.35072     -89248.918      100.6766     
     22500   65.579737      65.610412      119.7477       108.48938      95.935113      142.86184      86.671186      350.39692     -89245.704      100.40329    
     22600   65.730968      65.547804      119.69717     -142.33585     -184.26116     -115.52267     -127.22372      349.2766      -89244.365      100.08228    
     22700   65.986195      65.541692      119.69145     -240.60219     -246.40451     -300.59086     -174.8112       349.52743     -89247.406      100.15415    
     22800   65.885449      65.840564      119.74454      64.955211      115.77444      39.045225      40.045965      345.08971     -89246.031      98.882556    
     22900   65.885449      65.840564      119.66972      22.969847      0.62203303     42.580918      25.706589      350.30972     -89244.488      100.37831    
     23000   65.885449      65.840564      119.59061      91.318366      18.786845      63.868556      191.2997       347.82908     -89248.966      99.667502    
     23100   65.819676      65.672165      119.76651     -145.67258     -106.59741     -149.24954     -181.17079      346.7688      -89242.985      99.363687    
     23200   65.719482      65.753873      119.70409     -8.2180565     -29.1699        31.480129     -26.964398      346.10362     -89244.008      99.173086    
     23300   66.041233      65.965777      119.59547     -13.292755     -75.586115     -70.673734      106.38158      348.26356     -89244.074      99.791998    
     23400   66.069992      65.842483      119.77347     -89.249255     -10.488052     -122.37931     -134.8804       348.99176     -89243.421      100.00066    
     23500   65.937174      65.888546      119.70591      112.7937       83.780609      142.00311      112.59738      348.07044     -89246.044      99.736662    
     23600   66.252069      65.933872      119.61796     -1.1145341     -124.14492      15.592421      105.2089       351.26109     -89246.282      100.65092    
     23700   66.194019      66.011224      119.70175      58.877023      69.400253      41.02002       66.210796      348.93641     -89245.446      99.984798    
     23800   66.04881       65.951572      119.7545      -15.303773      21.071173      20.574006     -87.556498      350.63789     -89247.767      100.47234    
     23900   66.147399      65.909383      119.58834      31.646498     -80.894258      35.873309      139.96044      347.23126     -89248.424      99.496201    
     24000   66.212129      65.937716      119.67743      141.47948      120.09893      140.77636      163.56315      349.85414     -89244.817      100.24777    
     24100   66.080732      65.954118      119.7597       107.17011      201.31116      88.20363       31.99555       348.42631     -89247.299      99.838631    
     24200   66.304659      66.05316       119.69294     -314.77872     -327.75673     -341.46275     -275.11668      348.10829     -89244.702      99.747506    
     24300   66.311216      66.340168      119.62465      181.40922      85.362032      199.21987      259.64575      346.67669     -89244.748      99.337295    
     24400   66.429304      66.15788       119.78291      106.67794      169.19755      129.76077      21.075509      351.81979     -89246.29       100.811      
     24500   66.404064      66.222625      119.68212     -3.5755019     -18.116087     -52.918675      60.308256      347.6863      -89245.102      99.62659     
     24600   66.420899      66.154752      119.64242     -134.68123     -178.65661     -163.27544     -62.111647      349.11337     -89245.26       100.0355     
     24700   66.407786      66.138187      119.77581      34.768655      70.046819      77.473665     -43.21452       348.29222     -89245.958      99.80021     
     24800   66.311389      66.327959      119.70162      283.35312      311.2151       253.92635      284.91793      349.60916     -89243.721      100.17757    
     24900   66.236325      66.276577      119.61272     -64.268657     -103.42        -137.51182      48.125849      347.62223     -89245.992      99.60823     
     25000   66.281877      66.334619      119.72322     -11.517362      12.52986      -2.580718      -44.501228      349.13934     -89244.556      100.04294    
     25100   66.281877      66.334619      119.74444      63.121215      114.04746      65.522393      9.7937959      347.56136     -89247.662      99.590787    
     25200   66.489018      66.296909      119.64453     -226.46367     -253.82894     -278.80191     -146.76015      352.98946     -89246.942      101.14616    
     25300   66.489018      66.296909      119.71637     -259.50664     -251.51465     -268.89501     -258.11026      349.11178     -89248.025      100.03505    
     25400   66.489018      66.296909      119.76489      24.841752      24.568514      87.629413     -37.672672      350.42478     -89243.138      100.41128    
     25500   66.489018      66.296909      119.66084     -51.319412     -39.109021     -106.6822      -8.1670174      349.11208     -89246.112      100.03514    
     25600   66.725854      66.395914      119.63138     -73.514686     -67.540222     -150.88208     -2.1217524      347.76545     -89244.349      99.649268    
     25700   66.692993      66.560014      119.71051      82.187669      66.384188      111.5661       68.612715      346.86898     -89245.075      99.392392    
     25800   66.692993      66.560014      119.68036      94.748701      113.16669      40.554167      130.52524      350.45636     -89243.246      100.42033    
     25900   66.692993      66.560014      119.62725     -36.083918     -29.691141     -125.55992      46.999306      347.85873     -89246.199      99.675997    
     26000   66.692993      66.560014      119.80589     -267.94155     -283.01815     -174.69494     -346.11156      349.08695     -89242.754      100.02793    
     26100   66.692993      66.560014      119.75751     -138.38445     -92.305764     -114.94942     -207.89817      351.37703     -89245.709      100.68414    
     26200   66.692993      66.560014      119.64852     -185.69656     -186.00758     -250.31791     -120.7642       350.34423     -89247.738      100.3882     
     26300   67.036005      66.576811      119.7394      -190.23585     -184.38473     -157.93866     -228.38416      349.80698     -89244.024      100.23425    
     26400   67.036005      66.576811      119.72283      96.055582      59.152714      140.04788      88.96615       347.80674     -89246.242      99.661101    
     26500   67.036005      66.576811      119.69087     -231.8839      -208.77647     -299.0107      -187.86452      350.19591     -89244.016      100.3457     
     26600   67.036005      66.576811      119.6935      -144.8259      -145.89384     -199.10044     -89.483415      349.36507     -89244.53       100.10763    
     26700   67.011799      66.689154      119.75099      101.92088      122.93139      152.96576      29.865501      346.28771     -89246.486      99.225834    
     26800   66.83565       66.705442      119.66652     -15.600602     -83.716608      0.099655853    36.815145      350.09104     -89245.595      100.31565    
     26900   66.991052      66.943263      119.6787      -148.40309     -155.09034     -181.50835     -108.61057      348.11669     -89248.006      99.749914    
     27000   66.862314      66.859212      119.74507     -9.6036247      36.028384      4.062789      -68.902047      347.75627     -89248.012      99.646638    
     27100   66.862314      66.859212      119.67435      73.850004      37.032678      48.703432      135.8139       351.36256     -89244.445      100.67999    
     27200   67.133459      67.279436      119.61146      128.73147      121.35263      39.169449      225.67233      349.46256     -89246.095      100.13556    
     27300   66.990031      66.87803       119.70841      167.49399      181.73559      190.70933      130.03705      349.65604     -89247.497      100.191      
     27400   66.990031      66.87803       119.6853      -40.042241     -111.58868      25.188455     -33.726502      354.11804     -89248.162      101.46955    
     27500   66.990031      66.87803       119.6431      -73.622639     -122.41834     -106.52821      8.0786387      348.07835     -89243.807      99.738928    
     27600   67.111208      66.996128      119.76477     -77.69345       0.24350955    -84.435721     -148.88814      349.03857     -89245.28       100.01407    
     27700   67.111208      66.996128      119.70941     -23.042728     -74.679913      18.042127     -12.490399      350.92268     -89244.13       100.55395    
     27800   67.111208      66.996128      119.66463     -228.86075     -276.13719     -232.45563     -177.98943      348.26276     -89245.667      99.791767    
     27900   67.111208      66.996128      119.68809      76.15059       64.895731      52.813016      110.74302      346.95633     -89248.659      99.417422    
     28000   67.201153      67.176333      119.70336      289.5633       212.05169      329.26099      327.3772       351.53591     -89247.664      100.72966    
     28100   67.215696      67.087958      119.63166     -57.151876     -99.695225     -110.24276      38.482354      349.81652     -89245.218      100.23699    
     28200   67.209385      67.257899      119.67714     -57.147756     -21.328325     -114.19917     -35.915777      348.54029     -89247.195      99.871294    
     28300   67.348869      67.268824      119.76403      38.33167       35.262052      120.36707     -40.634108      350.42778     -89245.071      100.41214    
     28400   67.395584      67.321111      119.67364     -152.20856     -211.11228     -147.57979     -97.933613      346.98093     -89245.608      99.424471    
     28500   67.265761      67.306251      119.67256     -126.43816     -172.92666     -162.60564     -43.782187      346.78618     -89244.981      99.368667    
     28600   67.440465      67.470293      119.76237      60.887376      61.250282      96.634392      24.777453      347.81604     -89244.226      99.663766    
     28700   67.440465      67.470293      119.65824      90.416693      111.74133     -1.9116689      161.42041      349.85925     -89248.109      100.24923    
     28800   67.666071      67.375551      119.62766     -28.497378     -97.302442     -44.755626      56.565933      349.65504     -89244.498      100.19071    
     28900   67.575595      67.450811      119.74475      209.84407      187.98929      272.88549      168.65742      347.64687     -89245.073      99.61529     
     29000   67.863919      67.3214        119.6841      -29.042408      22.314698     -64.194487     -45.247435      349.91212     -89247.452      100.26438    
     29100   67.805597      67.349438      119.65083     -230.23739     -272.99781     -272.531       -145.18337      348.43033     -89243.818      99.839785    
     29200   67.523332      67.395976      119.74597      92.838657      120.22217      131.79972      26.494076      349.72501     -89248.578      100.21076    
     29300   67.604311      67.390377      119.71452      52.287808      127.45859     -26.824869      56.229708      347.27548     -89244.221      99.508872    
     29400   67.692233      67.560125      119.64957     -180.90788     -216.12858     -206.51664     -120.07843      351.73127     -89244.906      100.78564    
     29500   67.694409      67.502885      119.69308      100.17852      52.440907      102.70185      145.39281      345.45784     -89244.181      98.988041    
     29600   67.694409      67.502885      119.75285      257.19997      349.39276      223.30407      198.90307      350.92452     -89244.198      100.55447    
     29700   67.694409      67.502885      119.61813      10.458178     -50.129622     -13.845225      95.349382      348.91518     -89245.493      99.978713    
     29800   67.694409      67.502885      119.68099     -261.81972     -357.41478     -249.83668     -178.20769      350.6262      -89244.826      100.46899    
     29900   67.923911      67.597364      119.78232      132.43787      239.84077      113.22635      44.246478      347.38268     -89245.376      99.539589    
     30000   67.723024      67.784995      119.66996     -53.568826     -40.001887     -100.41287     -20.29172       348.46442     -89244.178      99.849551    
     30100   67.723024      67.784995      119.64494     -160.03689     -225.39769     -201.04181     -53.671186      349.33061     -89245          100.09775    
     30200   67.723024      67.784995      119.78946      57.475763      88.849898      110.32864     -26.751243      346.70943     -89243.827      99.346674    
     30300   68.121045      67.675319      119.64988     -8.3015696     -87.831954      22.307371      40.619875      350.434       -89242.684      100.41392    
     30400   67.719761      67.765043      119.58486      86.841366      50.356173      12.730803      197.43712      348.02083     -89247.294      99.722445    
     30500   67.719761      67.765043      119.72861      276.71805      302.85264      279.19372      248.10779      349.41941     -89245.621      100.1232     
     30600   67.845846      67.725526      119.71112     -68.494539     -113.09051     -37.167447     -55.225661      347.00678     -89246.831      99.431877    
     30700   67.845846      67.725526      119.64056     -118.27971     -160.37818     -167.26065     -27.200286      350.7344      -89248.151      100.5        
     30800   68.066978      67.928008      119.71858      25.253497      56.635375     -1.1113462      20.236463      348.84856     -89245.453      99.959624    
     30900   68.437736      67.979468      119.73628      28.000028      34.432811      76.349462     -26.782188      349.22316     -89247.803      100.06696    
     31000   68.034198      67.888767      119.61827     -184.80329     -237.16015     -226.67019     -90.579514      348.47461     -89244.658      99.852472    
     31100   68.174942      68.150213      119.72276     -129.92045     -90.286004     -158.41784     -141.05751      349.70017     -89247.308      100.20365    
     31200   68.303121      67.95148       119.76275      153.8479       194.54849      175.07056      91.924642      346.30409     -89245.925      99.230529    
     31300   68.303121      67.95148       119.64594      27.322696     -76.352282     -2.6480289      160.9684       345.79043     -89242.864      99.083344    
     31400   68.245231      67.994246      119.71095     -93.850652     -79.746094     -117.74955     -84.056314      346.27047     -89247.059      99.220894    
     31500   68.245231      67.994246      119.71691      69.843995      90.268807      53.765823      65.497354      349.97877     -89245.294      100.28348    
     31600   68.245231      67.994246      119.6741      -136.71816     -155.75113     -181.17689     -73.226474      350.55074     -89246.057      100.44737    
     31700   68.245231      67.994246      119.72474     -142.8552      -107.10631     -153.17723     -168.28208      348.90636     -89245.993      99.976188    
     31800   68.245231      67.994246      119.76215     -31.075444     -19.29041       11.567576     -85.503499      349.23387     -89248.891      100.07003    
     31900   68.245231      67.994246      119.66818     -61.392909     -70.408186     -88.2047       -25.565841      348.94453     -89243.994      99.987125    
     32000   68.259362      68.333082      119.64284     -43.221034     -47.03021      -83.06049       0.42759799     350.69854     -89245.836      100.48972    
     32100   68.259362      68.333082      119.73579      23.648518      23.14634       53.12183      -5.3226173      349.6095      -89248.596      100.17766    
     32200   68.493016      68.375252      119.74124      3.412797       38.98129      -10.82447      -17.918429      346.43424     -89243.658      99.267822    
     32300   68.416926      68.440936      119.69256     -311.90589     -351.57644     -316.96275     -267.17848      351.43474     -89245.592      100.70067    
     32400   68.49077       68.505936      119.77        -89.057216     -57.415995     -46.491791     -163.26386      348.74198     -89245.149      99.929086    
     32500   68.49077       68.505936      119.65862      231.47306      181.68481      214.20381      298.53056      349.35688     -89246.647      100.10528    
     32600   68.27361       68.337275      119.65445      106.86622      70.820506      91.22007       158.55809      348.77941     -89244.005      99.939811    
     32700   68.27361       68.337275      119.70749     -25.904647     -31.399733     -26.286781     -20.027426      346.07759     -89247.639      99.165625    
     32800   68.27361       68.337275      119.65546      139.14778      92.415163      123.31197      201.71619      350.60158     -89246.892      100.46194    
     32900   68.364779      68.411722      119.68486     -50.039947     -70.757621     -28.258955     -51.103264      353.03731     -89244.812      101.15988    
     33000   68.807898      68.766573      119.68158     -139.82719     -190.36787     -130.65295     -98.46073       348.72221     -89247.111      99.923419    
     33100   68.508878      68.524681      119.74154     -7.6034965     -4.5412416      11.261011     -29.530259      348.45913     -89250.029      99.848038    
     33200   68.508878      68.524681      119.72386     -132.31648     -90.722764     -180.17164     -126.05504      350.07126     -89245.222      100.30998    
     33300   68.508878      68.524681      119.635        83.829691      57.402717      49.736794      144.34956      347.42119     -89246.457      99.550623    
     33400   68.508878      68.524681      119.67217      126.72895      87.335914      137.66752      155.18342      350.75414     -89246.514      100.50565    
     33500   68.508878      68.524681      119.73168     -189.36432     -181.7637      -210.36804     -175.96123      347.55934     -89245.541      99.59021     
     33600   68.508878      68.524681      119.66486      99.74437       139.22899      28.800145      131.20398      350.96963     -89246.644      100.5674     
     33700   68.655801      68.651044      119.68156      83.442849      51.917005      83.35656       115.05498      351.31985     -89248.42       100.66775    
     33800   68.738127      68.688384      119.75402     -168.00463     -174.80056     -131.80641     -197.40692      347.70338     -89246.641      99.631483    
     33900   68.866794      68.753343      119.67046      20.589737     -16.53951      -7.1010827      85.409804      350.09485     -89244.069      100.31674    
     34000   68.899201      68.707628      119.6853       106.22637      93.414161      109.30172      115.96323      349.64708     -89245.766      100.18843    
     34100   68.899201      68.707628      119.70264      20.764231      10.530242      11.664314      40.098137      349.19123     -89249.357      100.05781    
     34200   68.798365      68.772117      119.68102     -74.244464     -48.437054     -131.1775      -43.118837      349.61625     -89245.84       100.1796     
     34300   68.961231      68.751134      119.66344      82.689149      13.549997      73.994931      160.52252      347.65286     -89248.069      99.617007    
     34400   68.981233      68.621671      119.70434      85.285581      41.924801      122.76631      91.165637      348.93737     -89243.451      99.985073    
     34500   68.959026      68.937008      119.71815     -51.987949     -8.6656945     -97.011317     -50.286836      347.47547     -89247.038      99.566178    
     34600   69.030819      68.816016      119.66738     -74.129617     -85.258917     -113.3599      -23.770035      348.77411     -89244.203      99.938291    
     34700   69.030819      68.816016      119.69733     -20.45788      -94.339947      39.76199      -6.7956837      347.1597      -89248.983      99.475695    
     34800   69.030819      68.816016      119.71359      53.579039      78.724228      74.156834      7.8560556      350.91645     -89247.045      100.55216    
     34900   69.030819      68.816016      119.66128     -171.68141     -199.43738     -207.46453     -108.14233      351.35001     -89245.028      100.67639    
     35000   69.030819      68.816016      119.76364     -167.4174      -128.37041     -158.15062     -215.73116      349.80335     -89248.119      100.23321    
     35100   69.245482      69.029187      119.68078      138.35891      148.43288      112.54752      154.09635      350.17769     -89241.74       100.34047    
     35200   69.136356      68.980146      119.63548      46.685777     -64.236378      69.942578      134.35113      349.41565     -89246.188      100.12212    
     35300   69.136356      68.980146      119.70965      9.7850513      8.0136774      33.397939     -12.056462      350.08903     -89244.489      100.31507    
     35400   69.136356      68.980146      119.66389      216.04278      244.79777      142.83748      260.49308      350.40042     -89246.494      100.4043     
     35500   69.422146      69.146652      119.68892     -74.012104     -76.614497     -104.18493     -41.236886      348.44092     -89241.665      99.842819    
     35600   69.281322      69.104109      119.72966     -222.76843     -237.60279     -193.17967     -237.52281      348.99837     -89246.561      100.00255    
     35700   69.281322      69.104109      119.71153      120.47071      122.70373      151.42852      87.279868      346.51987     -89248.451      99.292359    
     35800   69.350747      69.201477      119.68428     -74.571523     -56.934353     -110.17038     -56.609838      352.54712     -89245.796      101.01941    
     35900   69.314065      69.293925      119.70341     -196.71727     -177.8425      -211.69876     -200.61054      348.75633     -89246.339      99.933197    
     36000   69.435421      69.229725      119.7481       57.693769      50.846487      69.819816      52.415003      348.65199     -89243.027      99.903299    
     36100   69.519352      69.129027      119.71589     -102.88874     -98.908328     -110.80246     -98.955422      346.51504     -89246.546      99.290974    
     36200   69.519352      69.129027      119.6359      -47.05254      -111.18831     -81.535972      51.566668      350.86752     -89245.863      100.53814    
     36300   69.472241      69.325499      119.6907       203.95257      247.92133      125.77137      238.16501      350.06987     -89247.999      100.30958    
     36400   69.343921      69.255492      119.70548      101.42875      73.351544      128.75856      102.17616      349.01057     -89245.778      100.00605    
     36500   69.343921      69.255492      119.69643     -154.93528     -174.49452     -151.06038     -139.25094      350.63782     -89247.401      100.47232    
     36600   69.5885        69.490919      119.69512      122.70967      87.112696      127.58662      153.42969      348.72425     -89245.016      99.924006    
     36700   69.416149      69.487843      119.68665      114.48516      52.37606       137.00617      154.07324      347.33852     -89247.837      99.526935    
     36800   69.537075      69.518151      119.71944     -309.59228     -282.81528     -356.36421     -289.59734      350.99924     -89245.61       100.57588    
     36900   69.521716      69.427977      119.68551      49.109276      65.918191     -1.6405107      83.050147      348.93388     -89250.052      99.984074    
     37000   69.544506      69.422419      119.69197      156.45757      99.128847      189.33528      180.90858      349.29743     -89246.664      100.08825    
     37100   69.544506      69.422419      119.70708     -270.00173     -278.87598     -259.34702     -271.78218      351.48465     -89245.707      100.71497    
     37200   69.661093      69.486719      119.70629      45.56108       113.04073     -37.888673      61.53118       345.53852     -89245.204      99.01116     
     37300   69.837833      69.504978      119.73354      179.54201      193.6065       156.0582       188.96133      347.33127     -89243.151      99.524857    
     37400   69.520884      69.564189      119.70129     -57.12101      -83.144256     -29.194693     -59.024082      349.00436     -89247.08       100.00427    
     37500   70.021115      69.823494      119.65262     -74.982177     -112.89709     -69.046576     -43.002862      350.20652     -89243.96       100.34874    
     37600   69.871919      69.778588      119.70783      184.03581      186.82308      167.55866      197.72569      346.46926     -89244.533      99.277857    
     37700   69.871919      69.778588      119.66036      144.05985      147.26459      112.9256       171.98936      347.90698     -89243.574      99.689823    
     37800   69.871919      69.778588      119.6389      -26.021746     -75.184644     -20.597786      17.717192      349.11868     -89246.015      100.03703    
     37900   69.871919      69.778588      119.70008      46.535189     -7.0818905      61.493597      85.193861      348.78533     -89243.346      99.941508    
     38000   69.855068      69.787672      119.72345     -139.37307     -111.50905     -167.25991     -139.35024      347.38869     -89249.409      99.541312    
     38100   69.826127      69.823852      119.66546     -146.45753     -112.66919     -220.11284     -106.59056      349.08617     -89245.063      100.02771    
     38200   69.884796      70.01458       119.61918      226.42197      150.62368      235.93961      292.70263      349.63181     -89248.887      100.18406    
     38300   69.968244      69.813519      119.73963      59.260801      82.367019      76.146694      19.268691      349.04631     -89247.619      100.01629    
     38400   69.953395      70.302737      119.65972      13.707604     -31.094287     -17.699768      89.916866      353.16406     -89243.433      101.1962     
     38500   70.143889      69.850682      119.64713      106.00225      34.756268      124.28826      158.96222      350.61126     -89249.104      100.46471    
     38600   69.99819       69.792029      119.75547     -38.811609      27.995844     -58.361801     -86.06887       351.7128      -89245.64       100.78035    
     38700   69.99819       69.792029      119.71853     -159.90219     -114.88862     -212.64216     -152.17578      346.98494     -89246.615      99.42562     
     38800   70.238179      70.299494      119.64459     -27.327928     -129.23159      12.438442      34.80937       347.33857     -89246.205      99.526951    
     38900   70.274536      70.049357      119.7676      -79.408005     -33.918432     -79.623109     -124.68247      349.07355     -89242.569      100.02409    
     39000   70.040892      70.091361      119.72242     -59.240111     -4.4998855     -129.62546     -43.594984      346.38595     -89247.604      99.253984    
     39100   70.092992      70.057237      119.68062      63.080363      29.68395       91.217319      68.339821      351.79458     -89246.641      100.80378    
     39200   70.092992      70.057237      119.69531      33.476882     -50.653964      114.00385      37.080758      350.46262     -89245.613      100.42212    
     39300   70.092992      70.057237      119.72996      51.863482      94.984687      61.0378       -0.43204203     349.89983     -89247.076      100.26086    
     39400   70.092992      70.057237      119.67561     -48.825502     -49.182363     -69.338951     -27.955194      347.44937     -89247.538      99.558698    
     39500   70.337843      69.940704      119.69789     -88.944211     -53.51766      -135.0179      -78.297068      350.07526     -89245.798      100.31113    
     39600   70.337843      69.940704      119.72101      158.39819      171.35956      132.93626      170.89876      351.29076     -89248.675      100.65942    
     39700   70.440696      70.307975      119.65658      147.04301      69.371089      188.39787      183.36006      350.0209      -89246.69       100.29555    
     39800   70.43889       70.414016      119.63628      25.907475     -42.378845      25.433414      94.667855      346.66379     -89245.025      99.333596    
     39900   70.320778      70.248445      119.71699      124.28498      260.70438      12.790786      99.359773      350.80838     -89243.849      100.5212     
     40000   70.385826      70.151616      119.67366     -20.168267      10.649077     -98.097773      26.943895      348.81108     -89247.148      99.948884    
     40100   70.385826      70.151616      119.67167     -145.91959     -267.82288     -76.50277      -93.433107      350.98516     -89244.128      100.57185    
     40200   70.245771      70.097998      119.71763      73.406449      31.600615      121.01584      67.602891      350.5774      -89245.272      100.45501    
     40300   70.245771      70.097998      119.67551      50.712395      50.937334      44.401327      56.798524      348.53567     -89250.575      99.869969    
     40400   70.590207      70.467987      119.63764      35.36032       38.111644     -56.064224      124.03354      349.16658     -89245.019      100.05075    
     40500   70.495149      70.429175      119.70328      25.456426      35.549124      4.8957075      35.924445      349.33774     -89245.999      100.0998     
     40600   70.570032      70.483024      119.66692      259.29694      134.42353      347.24836      296.21891      350.1366      -89247.63       100.3287     
     40700   70.575087      70.404865      119.65317     -45.261343     -55.271987     -80.614552      0.10251053     349.81982     -89242.194      100.23793    
     40800   70.801936      70.425866      119.6733      -108.46137     -44.286922     -223.87806     -57.219133      348.24921     -89247.216      99.787885    
     40900   70.626547      70.522869      119.71576      27.888023      57.388187      18.510431      7.7654502      348.39406     -89244.379      99.829392    
     41000   70.550739      70.505006      119.61728      73.44767       11.258895      58.42383       150.66029      346.08284     -89247.003      99.167131    
     41100   70.550739      70.505006      119.68388     -34.911676     -108.11087      43.49729      -40.121444      348.31735     -89244.783      99.80741     
     41200   70.652655      70.762225      119.67704     -41.625567     -63.564365     -60.805347     -0.50699033     348.16414     -89249.204      99.76351     
     41300   71.058226      70.451696      119.67755      52.764937      161.65552     -73.808213      70.447499      349.465       -89245.146      100.13626    
     41400   70.672286      70.728503      119.73209     -235.85767     -233.66409     -218.94569     -254.96324      348.476       -89245.403      99.85287     
     41500   70.786352      70.713379      119.75011     -168.17528     -249.22666     -42.290617     -213.00857      345.46074     -89246.241      98.988874    
     41600   70.723415      70.541416      119.72151     -79.061814     -17.918763     -117.19214     -102.07454      352.14595     -89247.043      100.90446    
     41700   70.723415      70.541416      119.67582     -143.95923     -65.33937      -275.04536     -91.492953      346.38773     -89248.463      99.254493    
     41800   70.642648      70.659634      119.7513      -165.9047      -219.63943     -96.599189     -181.47549      352.14235     -89248.164      100.90343    
     41900   70.642648      70.659634      119.7608      -178.26843     -255.52311     -87.264311     -192.01785      347.05528     -89251.044      99.445775    
     42000   70.642648      70.659634      119.71324     -69.026494     -24.082929     -124.49479     -58.501764      347.40413     -89243.731      99.545735    
     42100   70.642648      70.659634      119.68746      92.112324      99.199839      40.531552      136.60558      348.10545     -89244.487      99.746692    
     42200   70.642648      70.659634      119.72636      74.864932      98.878192      49.494048      76.222557      350.00021     -89245.66       100.28962    
     42300   70.642648      70.659634      119.71181     -159.8711      -205.86896     -161.85866     -111.8857       350.61831     -89242.773      100.46673    
     42400   70.989004      70.882999      119.71536      100.67098      40.239705      156.12039      105.65284      349.00954     -89245.355      100.00575    
     42500   71.174377      70.912419      119.73582     -95.012909     -17.287647     -128.98317     -138.76791      346.27939     -89247.766      99.22345     
     42600   71.098076      70.798913      119.65718     -90.439046     -62.373821     -170.68749     -38.255827      350.2371      -89246.264      100.3575     
     42700   71.098076      70.798913      119.68786      117.80787      100.74451      115.49534      137.18377      344.69073     -89245.661      98.768233    
     42800   71.179656      70.841192      119.70479     -62.857508     -100.47242     -28.52779      -59.572318      348.89942     -89245.267      99.974197    
     42900   71.09336       70.904966      119.71697     -178.57419     -169.56654     -203.1905      -162.96554      347.43211     -89245.132      99.553752    
     43000   71.069277      71.066116      119.70432     -46.163935     -15.012283     -101.24355     -22.235975      347.84821     -89242.714      99.672984    
     43100   71.254413      71.194872      119.71508      123.39594      190.80204      56.839691      122.54609      348.07371     -89248.727      99.737598    
     43200   71.254413      71.194872      119.75597     -300.939       -325.7098      -232.98688     -344.12034      349.26098     -89244.245      100.0778     
     43300   71.375746      71.017847      119.56212      104.54685     -51.167047      130.49747      234.31014      349.29601     -89247.421      100.08784    
     43400   71.149582      71.288178      119.69469      227.13367      326.08504      114.99221      240.32377      349.15115     -89244.063      100.04633    
     43500   71.179845      71.144909      119.69961      54.946185      121.97292      7.5535302      35.312109      345.43797     -89247.571      98.982349    
     43600   71.209981      71.177793      119.64216     -196.71076     -329.87552     -142.4904      -117.76635      349.23817     -89245.134      100.07126    
     43700   71.209981      71.177793      119.71271     -68.703562     -132.53127     -7.1794359     -66.399979      344.29983     -89245.552      98.656223    
     43800   71.209981      71.177793      119.74238      61.772976      118.37173      31.247981      35.699216      348.73733     -89244.327      99.927752    
     43900   71.209981      71.177793      119.63393     -49.347434     -101.99305     -65.09882       19.049568      348.75191     -89250.697      99.93193     
     44000   71.209981      71.177793      119.68949     -65.851995     -64.260003     -113.04451     -20.251476      350.17222     -89245.553      100.33891    
     44100   71.203727      71.476987      119.6957       256.51939      233.67778      252.08318      283.7972       352.66115     -89247.107      101.05209    
     44200   71.25143       71.185092      119.69847     -111.50067     -154.49809     -61.358831     -118.6451       349.54044     -89246.533      100.15788    
     44300   71.25143       71.185092      119.6524       13.849084     -11.697539     -15.302295      68.547085      349.93636     -89246.371      100.27133    
     44400   71.25143       71.185092      119.75018      7.5831142      130.86732     -82.828708     -25.289269      349.5193      -89247.683      100.15182    
     44500   71.424316      71.36991       119.69297      66.045573     -3.6913443      126.51309      75.314973      348.45931     -89247.069      99.848088    
     44600   71.443802      71.366966      119.64846     -54.18194      -177.92665      10.57026       4.8105697      347.56439     -89247.15       99.591656    
     44700   71.384039      71.440601      119.78666     -17.782854      60.150705     -7.1346729     -106.3646       351.50058     -89244.57       100.71954    
     44800   71.384039      71.440601      119.76669     -82.210179      51.902379     -154.69745     -143.83547      348.72351     -89245.98       99.923792    
     44900   71.497003      71.474612      119.64588     -159.56829     -187.03969     -206.71471     -84.95045       349.40091     -89245.861      100.1179     
     45000   71.586591      71.505965      119.72855      67.715441      54.42002       134.22939      14.496915      350.69788     -89244.305      100.48953    
     45100   71.555962      71.470405      119.72092     -17.161027     -25.222629      19.30549      -45.565942      349.88775     -89246.832      100.2574     
     45200   71.829976      71.640852      119.65176      29.287301      81.500165     -91.253632      97.615369      353.07623     -89247.852      101.17103    
     45300   71.768727      71.460234      119.71506     -39.482233     -7.0209951     -70.453537     -40.972168      347.41711     -89246.171      99.549456    
     45400   71.768727      71.460234      119.68171      64.345377     -42.959588      137.25199      98.743724      349.9388      -89246.757      100.27202    
     45500   71.638408      71.451886      119.62666      224.1652       176.67107      245.11678      250.70776      352.50116     -89247.549      101.00625    
     45600   71.592224      71.584566      119.71        -106.68191     -82.453869     -112.36291     -125.22896      348.43258     -89244.751      99.840429    
     45700   71.64011       71.703378      119.73521     -11.578815     -10.212453      1.7274421     -26.251435      348.15826     -89249.239      99.761826    
     45800   71.584628      71.525348      119.7272      -165.42767     -141.91355     -189.0408      -165.32867      347.83785     -89244.496      99.670015    
     45900   71.688441      71.810616      119.65613     -24.513511     -83.100894     -31.246519      40.806879      350.68937     -89246.566      100.48709    
     46000   71.688441      71.810616      119.74296     -37.607128     -56.583104      3.6363298     -59.87461       345.86784     -89247.659      99.105523    
     46100   71.688441      71.810616      119.67487      7.8605036      18.47294      -13.422546      18.531116      350.11451     -89244.807      100.32237    
     46200   71.688441      71.810616      119.65297      26.027238      39.086645     -40.193119      79.188189      347.43441     -89244.984      99.554412    
     46300   71.688441      71.810616      119.72082      83.545593      72.72422       104.33816      73.574395      349.10401     -89247.016      100.03282    
[...]
    490400   102.19107      100.72966      72.956197      2100.5806      112.41768     -84.240735      6273.565       346.94342     -89257.943      99.413724     -0.3904        -0.6273565    
    490500   102.05245      100.58357      72.944229      2014.6524      105.12134     -164.75531      6103.5913      349.81896     -89257.605      100.23768     -0.3905        -0.61035913   
    490600   102.26465      100.71911      72.932261      2114.5378      11.726995      156.37019      6175.5161      349.59238     -89258.34       100.17276     -0.3906        -0.61755161   
    490700   102.26465      100.71911      72.920293      2015.0294     -181.41345      79.269868      6147.2319      348.80153     -89255.935      99.946149     -0.3907        -0.61472319   
    490800   101.95991      100.50127      72.908325      2144.5024      62.817688      87.253236      6283.4364      348.93352     -89258.237      99.983969     -0.3908        -0.62834364   
    490900   102.27438      101.47717      72.896358      1995.937      -60.010553     -15.889924      6063.7114      350.18531     -89260.824      100.34266     -0.3909        -0.60637114   
    491000   102.01932      101.31633      72.88439       1886.3819     -68.720612     -153.91098      5881.7773      350.52228     -89266.552      100.43921     -0.391         -0.58817773   
    491100   101.83813      101.36827      72.872422      2090.5521      119.87153      158.55723      5993.2277      348.12767     -89263.894      99.75306      -0.3911        -0.59932277   
    491200   102.34907      101.49179      72.860454      1724.1257     -217.4017      -246.09529      5635.8739      347.3915      -89264.162      99.542116     -0.3912        -0.56358739   
    491300   102.30519      101.05122      72.848486      2086.3403      130.45389      230.12796      5898.4389      349.72819     -89259.285      100.21168     -0.3913        -0.58984389   
    491400   102.31209      100.81623      72.836518      1844.1113     -205.09304     -89.759256      5827.1863      347.93932     -89263.62       99.699089     -0.3914        -0.58271863   
    491500   102.10588      101.32915      72.82455       2032.2501      139.58541      2.4714202      5954.6935      347.30502     -89261.747      99.517336     -0.3915        -0.59546935   
    491600   102.32699      101.51828      72.812582      1840.3721     -103.89594     -346.55002      5971.5623      350.73961     -89263.152      100.50149     -0.3916        -0.59715623   
    491700   102.35542      100.95116      72.800615      2191.4715      71.679719      163.94976      6338.7849      345.49394     -89262.893      98.998387     -0.3917        -0.63387849   
    491800   102.47105      101.3312       72.788647      2038.1747     -225.11134      146.15171      6193.4838      347.92777     -89263.182      99.695781     -0.3918        -0.61934838   
    491900   102.38356      101.36208      72.776679      2076.7466      73.93333      -82.33296       6238.6395      350.09863     -89261.739      100.31782     -0.3919        -0.62386395   
    492000   101.95774      101.42526      72.764711      2055.3163      144.16769     -92.680766      6114.4621      348.3774      -89259.646      99.824618     -0.392         -0.61144621   
    492100   102.41709      100.96872      72.752743      2041.2456     -101.21103     -53.193189      6278.1409      347.60031     -89261.225      99.60195      -0.3921        -0.62781409   
    492200   102.49428      101.48454      72.740775      2151.4287     -121.94048      259.37186      6316.8546      350.08987     -89260.479      100.31531     -0.3922        -0.63168546   
    492300   102.47266      101.69263      72.728807      2168.0117      96.770044      107.01966      6300.2454      349.5893      -89260.359      100.17188     -0.3923        -0.63002454   
    492400   102.15458      101.4138       72.716839      2023.5326     -87.816307     -174.18749      6332.6015      348.50657     -89259.597      99.861631     -0.3924        -0.63326015   
    492500   102.38805      101.64494      72.704871      2310.8209      238.50195      105.39512      6588.5657      349.72576     -89259.282      100.21098     -0.3925        -0.65885657   
    492600   102.26936      101.65917      72.692904      1988.4825     -232.92759     -164.492        6362.8671      349.70662     -89260.049      100.20549     -0.3926        -0.63628671   
    492700   102.43626      101.58487      72.680936      2166.7235      44.1999       -68.608974      6524.5795      351.22041     -89260.848      100.63926     -0.3927        -0.65245795   
    492800   102.51988      101.56629      72.668968      2060.2434     -214.96538     -16.435311      6412.1309      347.427       -89255.033      99.55229      -0.3928        -0.64121309   
    492900   102.36496      101.57594      72.657         2190.3481      34.939689     -131.12133      6667.2258      347.90919     -89259.095      99.690456     -0.3929        -0.66672258   
    493000   102.41658      101.24573      72.645032      2242.952       154.75052     -60.37355       6634.4791      350.73351     -89256.066      100.49974     -0.393         -0.66344791   
    493100   102.50169      101.43545      72.633064      2053.7562     -221.85843     -100.39083      6483.5178      348.55693     -89257.256      99.876062     -0.3931        -0.64835178   
    493200   102.94212      101.23446      72.621096      2188.0219     -173.47893     -71.231907      6808.7766      345.87611     -89256.269      99.107894     -0.3932        -0.68087766   
    493300   102.41459      101.54904      72.609128      2289.5775      21.992283     -38.381496      6885.1217      352.29139     -89256.869      100.94614     -0.3933        -0.68851217   
    493400   102.40651      101.55196      72.597161      2268.1931      145.81047     -192.6913       6851.46        351.71754     -89257.208      100.78171     -0.3934        -0.685146     
    493500   102.34466      101.54702      72.585193      2353.7379      55.805922      107.95307      6897.4548      349.97974     -89253.815      100.28376     -0.3935        -0.68974548   
    493600   102.95687      101.43464      72.573225      2260.5481     -297.19164      171.72183      6907.1142      348.7953      -89254.689      99.944363     -0.3936        -0.69071142   
    493700   102.95687      101.43464      72.561257      2387.7455      135.90764      31.801266      6995.5277      349.42152     -89251.681      100.1238      -0.3937        -0.69955277   
    493800   102.31701      101.71087      72.549289      2309.189       112.4446      -113.90983      6929.0323      347.88975     -89252.957      99.684887     -0.3938        -0.69290323   
    493900   102.31701      101.71087      72.537321      2342.7263      24.572411     -15.928264      7019.5348      349.16        -89249.607      100.04887     -0.3939        -0.70195348   
    494000   102.51281      101.53567      72.525353      2351.8974     -189.48801      147.37158      7097.8085      350.7666      -89254.287      100.50922     -0.394         -0.70978085   
    494100   102.56823      101.47158      72.513385      2429.7399      9.1183703     -20.112919      7300.2142      346.49986     -89251.02       99.286625     -0.3941        -0.73002142   
    494200   102.47361      101.72288      72.501417      2374.5956      123.85728     -135.07211      7135.0017      349.24088     -89249.926      100.07204     -0.3942        -0.71350017   
    494300   102.57627      101.63141      72.48945       2459.7902      132.2865       122.77266      7124.3115      345.95756     -89253.016      99.131234     -0.3943        -0.71243115   
    494400   102.85631      101.69855      72.477482      2325.6372     -178.1223      -30.266888      7185.3007      349.88133     -89248.38       100.25556     -0.3944        -0.71853007   
    494500   102.64937      101.58403      72.465514      2501.3324      108.73617      114.61595      7280.6451      348.64579     -89251.844      99.901523     -0.3945        -0.72806451   
    494600   102.96472      101.62151      72.453546      2317.6722      10.72003      -200.43984      7142.7364      350.38393     -89246.655      100.39957     -0.3946        -0.71427364   
    494700   102.46192      101.51451      72.441578      2396.3294     -141.73555      76.071622      7254.6521      349.1782      -89248.341      100.05408     -0.3947        -0.72546521   
    494800   102.67921      101.62584      72.42961       2494.8046     -42.825967      96.328865      7430.911       346.19412     -89248.596      99.199018     -0.3948        -0.7430911    
    494900   102.87463      102.05042      72.417642      2513.9519      94.54519      -83.149223      7530.4599      349.26099     -89245.899      100.0778      -0.3949        -0.75304599   
    495000   102.80298      101.49088      72.405674      2615.1103      215.36121      36.102057      7593.8677      348.77605     -89246.892      99.938846     -0.395         -0.75938677   
    495100   103.16223      101.78006      72.393707      2311.1721     -320.09333     -124.32316      7377.9326      349.63848     -89244.587      100.18597     -0.3951        -0.73779326   
    495200   102.95287      101.57609      72.381739      2618.5278      22.708486      301.1736       7531.7012      348.8057      -89247.849      99.947344     -0.3952        -0.75317012   
    495300   102.67855      101.60676      72.369771      2261.2566     -142.26633     -383.93794      7309.9739      348.74944     -89243.747      99.931222     -0.3953        -0.73099739   
    495400   102.66649      101.60372      72.357803      2675.9104      322.96788      1.6195016      7703.1439      350.2836      -89243.637      100.37082     -0.3954        -0.77031439   
    495500   102.66798      101.77561      72.345835      2463.7324     -187.4708      -31.242159      7609.9101      350.09588     -89245.717      100.31703     -0.3955        -0.76099101   
    495600   102.95244      101.73445      72.333867      2638.8087     -49.834409      255.96172      7710.2989      347.66296     -89239.855      99.619902     -0.3956        -0.77102989   
    495700   102.85654      101.54532      72.321899      2598.1616      107.15523     -123.12351      7810.4531      347.94162     -89241.148      99.699749     -0.3957        -0.78104531   
    495800   102.85654      101.54532      72.309931      2614.8837      154.84236     -119.45468      7809.2634      351.56935     -89241.656      100.73924     -0.3958        -0.78092634   
    495900   102.84297      101.70474      72.297964      2662.9051      78.19611       96.356814      7814.1624      343.17321     -89242.585      98.3334       -0.3959        -0.78141624   
    496000   103.15796      101.80552      72.285996      2624.4665     -190.71783      90.57167       7973.5457      347.8915      -89238.789      99.685387     -0.396         -0.79735457   
    496100   103.07256      101.68016      72.274028      2767.8181      227.85584      180.41033      7895.1881      345.45651     -89239.911      98.987662     -0.3961        -0.78951881   
    496200   102.71528      101.82833      72.26206       2437.9317     -175.52251     -202.79635      7692.114       348.25607     -89237.887      99.789852     -0.3962        -0.7692114    
    496300   102.60006      101.68493      72.250092      2704.6933      95.271688      62.29794       7956.5104      353.35827     -89239.409      101.25184     -0.3963        -0.79565104   
    496400   102.81806      101.73736      72.238124      2698.1973      19.735928      55.789402      8019.0665      349.07796     -89236.246      100.02536     -0.3964        -0.80190665   
    496500   102.88707      101.54601      72.226156      2637.0339     -24.295917     -107.51071      8042.9084      349.12818     -89234.488      100.03975     -0.3965        -0.80429084   
    496600   102.96779      102.01328      72.214188      2775.7896      118.52229      0.8141215      8208.0324      348.02545     -89236.991      99.723771     -0.3966        -0.82080324   
    496700   102.73142      101.63959      72.20222       2708.788      -64.774406     -56.388299      8247.5267      346.97511     -89236.697      99.422802     -0.3967        -0.82475267   
    496800   103.14865      101.48817      72.190253      2746.9472     -5.3734875      62.144127      8184.071       348.31929     -89231.525      99.807966     -0.3968        -0.8184071    
    496900   103.0919       101.45496      72.178285      2668.6744      32.313285     -103.89077      8077.6007      349.42868     -89237.152      100.12585     -0.3969        -0.80776007   
    497000   103.20248      101.84933      72.166317      2676.1231     -35.320038     -16.277994      8079.9672      350.33349     -89231.436      100.38512     -0.397         -0.80799672   
    497100   103.05226      102.06991      72.154349      2756.9157      38.176279      47.741217      8184.8297      349.68164     -89235.151      100.19834     -0.3971        -0.81848297   
    497200   103.05226      102.06991      72.142381      2652.5476     -65.995838     -99.957862      8123.5965      351.04487     -89231.205      100.58896     -0.3972        -0.81235965   
    497300   103.05226      102.06991      72.130413      2841.8707      36.247895      59.181201      8430.1829      351.78314     -89233.152      100.8005      -0.3973        -0.84301829   
    497400   103.16202      101.71698      72.118445      2795.2105     -41.880424     -79.451592      8506.9634      349.06744     -89234.078      100.02234     -0.3974        -0.85069634   
    497500   103.29427      101.85277      72.106477      2882.7551      59.284507      48.946948      8540.0338      347.947       -89228.284      99.701291     -0.3975        -0.85400338   
    497600   103.0167       101.61607      72.09451       2883.8768      37.610319      32.531377      8581.4886      346.25453     -89232.322      99.216326     -0.3976        -0.85814886   
    497700   102.98082      101.77198      72.082542      2850.153       33.740298     -17.993637      8534.7123      348.66904     -89227.389      99.908186     -0.3977        -0.85347123   
    497800   102.98082      101.77198      72.070574      2667.267      -101.69376     -163.48787      8266.9825      348.86228     -89229.908      99.963555     -0.3978        -0.82669825   
    497900   103.10577      101.53029      72.058606      2794.3647      6.9499599      143.89805      8232.246       349.51465     -89226.795      100.15049     -0.3979        -0.8232246    
    498000   102.7292       101.98215      72.046638      2500.7473     -201.92737     -68.790697      7772.9598      350.3732      -89231.375      100.3965      -0.398         -0.77729598   
    498100   102.78498      101.74798      72.03467       2570.6788      49.131873      95.599493      7567.305       350.80114     -89233.211      100.51912     -0.3981        -0.7567305    
    498200   102.75402      102.72156      72.022702      2284.9614      48.904458     -303.84547      7109.8253      349.93838     -89236.051      100.2719      -0.3982        -0.71098253   
    498300   102.59874      103.10367      72.010734      2520.2395      264.80325     -2.7777881      7298.693       351.05165     -89232.17       100.5909      -0.3983        -0.7298693    
    498400   102.54792      102.26603      71.998767      2457.138      -159.10406      120.98205      7409.5361      350.08756     -89231.446      100.31465     -0.3984        -0.74095361   
    498500   102.95565      102.49936      71.986799      2395.4785     -211.1907       147.65174      7249.9743      349.03234     -89234.409      100.01229     -0.3985        -0.72499743   
    498600   103.11322      102.38651      71.974831      2491.3407      197.80803     -22.223165      7298.4371      347.49391     -89230.577      99.57146      -0.3986        -0.72984371   
    498700   102.55011      102.45998      71.962863      2392.0861     -34.887282     -122.62085      7333.7664      348.89601     -89232.735      99.97322      -0.3987        -0.73337664   
    498800   102.82106      102.5594       71.950895      2472.4455     -146.50607      95.630475      7468.212       351.68949     -89230.675      100.77367     -0.3988        -0.7468212    
    498900   102.99668      102.70429      71.938927      2448.8836     -39.905782     -75.267752      7461.8243      347.92632     -89231.629      99.695365     -0.3989        -0.74618243   
    499000   102.83383      102.57097      71.926959      2516.2421      9.8500121      22.514048      7516.3624      348.14728     -89230.37       99.758678     -0.399         -0.75163624   
    499100   102.92076      102.81707      71.914991      2431.6945     -43.159574     -189.7784       7528.0215      349.81863     -89232.596      100.23759     -0.3991        -0.75280215   
    499200   103.07336      102.90779      71.903023      2404.6083     -158.97045     -171.18312      7543.9783      350.95776     -89229.052      100.564       -0.3992        -0.75439783   
    499300   102.76138      102.78254      71.891056      2626.9131      34.350658      174.92765      7671.461       345.29199     -89231.019      98.94052      -0.3993        -0.7671461    
    499400   103.25978      102.62978      71.879088      2378.7793     -179.2814      -199.3609       7514.9801      350.00161     -89229.232      100.29002     -0.3994        -0.75149801   
    499500   103.16274      102.47275      71.86712       2594.9166      139.9558      -44.084208      7688.8783      351.31057     -89225.881      100.66509     -0.3995        -0.76888783   
    499600   103.09709      102.92847      71.855152      2560.5442     -93.766685     -30.175848      7805.5752      349.03324     -89225.27       100.01254     -0.3996        -0.78055752   
    499700   103.07791      102.53703      71.843184      2597.5099     -77.232016      71.202527      7798.5592      347.40382     -89227.324      99.545646     -0.3997        -0.77985592   
    499800   103.07791      102.53703      71.831216      2576.6647     -13.061843     -16.613789      7759.6699      352.04747     -89223.48       100.87624     -0.3998        -0.77596699   
    499900   102.97306      102.6104       71.819248      2622.7144     -25.063275     -4.1666873      7897.3732      348.47344     -89226.555      99.852136     -0.3999        -0.78973732   
    500000   102.91143      102.97875      71.80728       2636.5209      48.935413     -62.00641       7922.6338      347.29706     -89221.882      99.515054     -0.4           -0.79226338   
Loop time of 33904.2 on 1 procs for 400000 steps with 27000 atoms

Performance: 10.193 ns/day, 2.354 hours/ns, 11.798 timesteps/s, 318.544 katom-step/s
84.0% CPU use with 1 MPI tasks x 1 OpenMP threads

MPI task timing breakdown:
Section |  min time  |  avg time  |  max time  |%varavg| %total
---------------------------------------------------------------
Pair    | 33054      | 33054      | 33054      |   0.0 | 97.49
Neigh   | 438.49     | 438.49     | 438.49     |   0.0 |  1.29
Comm    | 16.203     | 16.203     | 16.203     |   0.0 |  0.05
Output  | 45.322     | 45.322     | 45.322     |   0.0 |  0.13
Modify  | 294.18     | 294.18     | 294.18     |   0.0 |  0.87
Other   |            | 56.2       |            |       |  0.17

Nlocal:          27000 ave       27000 max       27000 min
Histogram: 1 0 0 0 0 0 0 0 0 0
Nghost:           6204 ave        6204 max        6204 min
Histogram: 1 0 0 0 0 0 0 0 0 0
Neighs:    2.04529e+06 ave 2.04529e+06 max 2.04529e+06 min
Histogram: 1 0 0 0 0 0 0 0 0 0

Total # of neighbors = 2045292
Ave neighs/atom = 75.751556
Neighbor list builds = 6284
Dangerous builds = 0

print           "Simulation Complete"
Simulation Complete
Total wall time: 10:10:59
